                         Program Version 5.0.1 -  RELEASE  -
|  1> # avogadro generated ORCA input file
|  2> # Basic Mode
|  3> # CH4
|  4> ! HF OPT 6-31g(d) LargePrint
|  5>
|  6> * xyz 0 1
|  7>    C       -0.64248        0.35944        0.00000
|  8>    H        0.42752        0.35944        0.00000
|  9>    H       -0.99914        0.72021       -0.94209
| 10>    H       -0.99915        0.99493        0.78348
| 11>    H       -0.99915       -0.63682        0.15861
| 12> *
| 13>
| 14>
| 15>                          ****END OF INPUT****
 Total Charge           Charge          ....    0
 Multiplicity           Mult            ....    1
 Number of Electrons    NEL             ....   10
FINAL SINGLE POINT ENERGY       -40.194304885666
FINAL SINGLE POINT ENERGY       -40.194839942270
                    ***********************HURRAY********************

CARTESIAN COORDINATES (ANGSTROEM)
---------------------------------
  C     -0.642480    0.359440    0.000000
  H      0.441257    0.359439    0.000003
  H     -1.003722    0.724842   -0.954187
  H     -1.003728    1.003089    0.793538
  H     -1.003728   -0.649609    0.160645

 Multiplicity           Mult            ....    1
 Number of Electrons    NEL             ....   10
 Basis Dimension        Dim             ....   22

ORBITAL ENERGIES
----------------

  NO   OCC          E(Eh)            E(eV)
   0   2.0000     -11.200784      -304.7888
   1   2.0000      -0.944618       -25.7044
   2   2.0000      -0.546215       -14.8633
   3   2.0000      -0.546215       -14.8633
   4   2.0000      -0.546215       -14.8633
   5   0.0000       0.257204         6.9989
   6   0.0000       0.327769         8.9190
   7   0.0000       0.327769         8.9190
   8   0.0000       0.327769         8.9191
   9   0.0000       0.728241        19.8164

------------------
MOLECULAR ORBITALS
------------------
                      0         1         2         3         4         5
                 -11.20078  -0.94462  -0.54622  -0.54622  -0.54621   0.25720
                   2.00000   2.00000   2.00000   2.00000   2.00000   0.00000
                  --------  --------  --------  --------  --------  --------
  0C   1s        -0.996154 -0.196857 -0.000000 -0.000000  0.000000 -0.153667
  0C   2s        -0.025496  0.372660  0.000000  0.000000 -0.000000  0.089937
  0C   1pz        0.000000 -0.000000  0.309105 -0.075284 -0.297821 -0.000000
  0C   1px       -0.000000  0.000000 -0.274741  0.121243 -0.315798  0.000000
  0C   1py       -0.000000  0.000000 -0.137414 -0.411757 -0.038536  0.000000
  0C   3s         0.016571  0.381342  0.000000  0.000000 -0.000000  2.794955
  0C   2pz       -0.000000 -0.000000  0.162452 -0.039566 -0.156522 -0.000000
  0C   2px        0.000000  0.000000 -0.144392  0.063720 -0.165970  0.000000
  0C   2py        0.000000  0.000000 -0.072219 -0.216402 -0.020253  0.000000
  0C   1dz2       0.000000  0.000000 -0.004029 -0.024394  0.018966  0.000000
  0C   1dxz       0.000000 -0.000000 -0.014735  0.003589  0.014197 -0.000000
  0C   1dyz      -0.000000 -0.000000  0.014319 -0.017178 -0.019052 -0.000000
  0C   1dx2y2     0.000000  0.000000 -0.028520 -0.002524 -0.019158  0.000000
  0C   1dxy      -0.000000  0.000000  0.006551  0.019629  0.001837  0.000000
  1H   1s         0.000089  0.135214 -0.184229  0.081301 -0.211762  0.004501
  1H   2s        -0.003136  0.033822 -0.151728  0.066958 -0.174403 -1.044357
  2H   1s         0.000089  0.135214 -0.152154 -0.075747  0.237708  0.004501
  2H   2s        -0.003136  0.033822 -0.125311 -0.062384  0.195772 -1.044357
  3H   1s         0.000089  0.135214  0.158455 -0.228049 -0.090990  0.004501
  3H   2s        -0.003136  0.033822  0.130500 -0.187817 -0.074937 -1.044357
  4H   1s         0.000089  0.135214  0.177929  0.222495  0.065044  0.004501
  4H   2s        -0.003136  0.033822  0.146539  0.183243  0.053569 -1.044357
                      6         7         8         9        10        11
                   0.32777   0.32777   0.32777   0.72824   0.72824   0.72824
                   0.00000   0.00000   0.00000   0.00000   0.00000   0.00000
                  --------  --------  --------  --------  --------  --------
  0C   1s        -0.000000  0.000000 -0.000000  0.000000  0.000000  0.000000
  0C   2s         0.000000 -0.000000  0.000000  0.000000  0.000000  0.000000
  0C   1pz        0.201959  0.038047  0.214000  0.487969 -0.007732  0.541361
  0C   1px        0.212731 -0.094537 -0.183954  0.489467  0.317806 -0.436654
  0C   1py        0.044597  0.278651 -0.091629  0.231417 -0.655885 -0.217961
  0C   3s         0.000000 -0.000000  0.000000 -0.000000 -0.000000 -0.000000
  0C   2pz        1.025066  0.193112  1.086184 -0.906175  0.014358 -1.005328
  0C   2px        1.079744 -0.479833 -0.933682 -0.908956 -0.590177  0.810884
  0C   2py        0.226358  1.414325 -0.465075 -0.429749  1.218001  0.404761
  0C   1dz2       0.007335 -0.010756  0.001775 -0.036045 -0.079979 -0.013131
  0C   1dxz       0.005962  0.001123  0.006318 -0.039590  0.000628 -0.043923
  0C   1dyz      -0.008353 -0.006720 -0.006206  0.061937 -0.035116  0.043871
  0C   1dx2y2    -0.008326 -0.000628  0.011886  0.058614  0.005394 -0.078435
  0C   1dxy       0.001317  0.008226 -0.002705 -0.018776  0.053214  0.017684
  1H   1s        -0.054883  0.024390  0.047458  0.362342  0.235265 -0.323243
  1H   2s        -1.450105  0.644419  1.253933  0.060242  0.039115 -0.053744
  2H   1s         0.060290 -0.023726  0.040761 -0.381068 -0.237089 -0.299505
  2H   2s         1.592964 -0.626888  1.076988 -0.063355 -0.039418 -0.049797
  3H   1s        -0.026691 -0.058014 -0.042206  0.245467 -0.370980  0.305363
  3H   2s        -0.705211 -1.532820 -1.115154  0.040811 -0.061679  0.050771
  4H   1s         0.021284  0.057350 -0.046014 -0.226740  0.372804  0.317385
  4H   2s         0.562352  1.515289 -1.215767 -0.037697  0.061982  0.052770
                     12        13        14        15        16        17
                   1.18442   1.18442   1.18442   1.25445   1.33015   1.94068
                   0.00000   0.00000   0.00000   0.00000   0.00000   0.00000
                  --------  --------  --------  --------  --------  --------
  0C   1s        -0.000000 -0.000000 -0.000000  0.103139  0.082031  0.000000
  0C   2s        -0.000000 -0.000000 -0.000000 -1.090425  2.136178  0.000002
  0C   1pz        0.628383 -0.168925  0.648768  0.000000  0.000000  0.000000
  0C   1px        0.667002  0.246935 -0.581748 -0.000000 -0.000000 -0.000000
  0C   1py        0.067401 -0.868785 -0.291496 -0.000000 -0.000000 -0.000000
  0C   3s         0.000000  0.000000  0.000001  1.505601 -5.194859 -0.000006
  0C   2pz       -0.824158  0.221554 -0.850894 -0.000000  0.000000  0.000000
  0C   2px       -0.874810 -0.323869  0.762994  0.000000 -0.000000 -0.000000
  0C   2py       -0.088400  1.139459  0.382312  0.000000 -0.000000 -0.000000
  0C   1dz2       0.118163  0.147338  0.024363  0.000000  0.000000 -0.399909
  0C   1dxz       0.086820 -0.023340  0.089638 -0.000000 -0.000001  0.734015
  0C   1dyz      -0.115273  0.106804 -0.086832 -0.000000 -0.000000  0.346542
  0C   1dx2y2    -0.116094  0.016829  0.174820  0.000000  0.000000 -0.230893
  0C   1dxy       0.009313 -0.120037 -0.040275  0.000000  0.000000 -0.357619
  1H   1s        -0.620559 -0.229741  0.541237  0.617998  0.368206  0.000001
  1H   2s         1.155311  0.427715 -1.007635 -0.587062  0.946987  0.000001
  2H   1s         0.700447  0.210733  0.442466  0.617998  0.368207  0.000001
  2H   2s        -1.304042 -0.392328 -0.823751 -0.587062  0.946987  0.000001
  3H   1s        -0.258467  0.671714 -0.461310  0.617997  0.368206  0.000001
  3H   2s         0.481195 -1.250548  0.858832 -0.587062  0.946987  0.000001
  4H   1s         0.178578 -0.652707 -0.522394  0.617997  0.368206  0.000001
  4H   2s        -0.332465  1.215162  0.972554 -0.587061  0.946987  0.000001
                     18        19        20        21
                   1.94068   2.59156   2.59156   2.59156
                   0.00000   0.00000   0.00000   0.00000
                  --------  --------  --------  --------
  0C   1s        -0.000000  0.000000  0.000000 -0.000000
  0C   2s        -0.000001 -0.000000 -0.000000  0.000000
  0C   1pz        0.000000 -0.132089  0.014535  0.122498
  0C   1px       -0.000000  0.110417 -0.066089  0.126904
  0C   1py        0.000000  0.055000  0.167587  0.039421
  0C   3s         0.000002  0.000000  0.000000 -0.000000
  0C   2pz       -0.000000 -0.301798  0.033211  0.279883
  0C   2px       -0.000000  0.252282 -0.151001  0.289951
  0C   2py        0.000000  0.125665  0.382903  0.090069
  0C   1dz2      -0.300118  0.137907  0.838623 -0.489813
  0C   1dxz      -0.357618  0.477943 -0.052599 -0.443231
  0C   1dyz      -0.461782 -0.473130  0.457348  0.649837
  0C   1dx2y2    -0.173273  0.878667  0.005912  0.635575
  0C   1dxy      -0.734011 -0.199011 -0.606387 -0.142642
  1H   1s        -0.000000 -0.521531  0.312160 -0.599408
  1H   2s        -0.000000  0.064823 -0.038800  0.074504
  2H   1s        -0.000000 -0.463061 -0.310494  0.646449
  2H   2s        -0.000000  0.057556  0.038593 -0.080351
  3H   1s        -0.000000  0.476386 -0.624446 -0.334443
  3H   2s        -0.000000 -0.059212  0.077616  0.041570
  4H   1s        -0.000000  0.508206  0.622781  0.287402
  4H   2s        -0.000000 -0.063167 -0.077409 -0.035723

MULLIKEN ATOMIC CHARGES
-----------------------
   0 C :   -0.677898
   1 H :    0.169475
   2 H :    0.169475
   3 H :    0.169475
   4 H :    0.169475
Sum of atomic charges:   -0.0000000

LOEWDIN ATOMIC CHARGES
----------------------
   0 C :   -0.516756
   1 H :    0.129189
   2 H :    0.129189
   3 H :    0.129189
   4 H :    0.129189

  Mayer bond orders larger than 0.100000
B(  0-C ,  1-H ) :   0.9590 B(  0-C ,  2-H ) :   0.9590 B(  0-C ,  3-H ) :   0.9590
B(  0-C ,  4-H ) :   0.9590

FINAL SINGLE POINT ENERGY       -40.194840702403

DIPOLE MOMENT
-------------
                                X             Y             Z
Electronic contribution:     -0.00000      -0.00000       0.00000
Nuclear contribution   :      0.00000       0.00000      -0.00000
                        -----------------------------------------
Total Dipole Moment    :      0.00000       0.00000      -0.00000
                        -----------------------------------------
Magnitude (a.u.)       :      0.00000
Magnitude (Debye)      :      0.00000

Rotational constants in cm-1:     5.339736     5.339732     5.339730
Rotational constants in MHz : 160081.270318 160081.129216 160081.084330

                             ****ORCA TERMINATED NORMALLY****
TOTAL RUN TIME: 0 days 0 hours 0 minutes 4 seconds 265 msec
