                         Program Version 5.0.1 -  RELEASE  -
|  1> # avogadro generated ORCA input file
|  2> # Basic Mode
|  3> #
|  4> ! HF OPT 6-31g(d) LargePrint
|  5>
|  6> * xyz 0 1
|  7>    O       -1.53492        0.33285        0.00000
|  8>    H       -0.56492        0.33285        0.00000
|  9>    H       -1.85825       -0.49597        0.38654
| 10> *
| 11>
| 12>
| 13>                          ****END OF INPUT****
 Total Charge           Charge          ....    0
 Multiplicity           Mult            ....    1
 Number of Electrons    NEL             ....   10
FINAL SINGLE POINT ENERGY       -76.007724600477
FINAL SINGLE POINT ENERGY       -76.009266948031
FINAL SINGLE POINT ENERGY       -76.009331556758
FINAL SINGLE POINT ENERGY       -76.009341314136
                    ***********************HURRAY********************

CARTESIAN COORDINATES (ANGSTROEM)
---------------------------------
  O     -1.539911    0.339247   -0.002983
  H     -0.592888    0.310129    0.010596
  H     -1.825291   -0.479646    0.378927

 Multiplicity           Mult            ....    1
 Number of Electrons    NEL             ....   10
 Basis Dimension        Dim             ....   18

ORBITAL ENERGIES
----------------

  NO   OCC          E(Eh)            E(eV)
   0   2.0000     -20.552261      -559.2554
   1   2.0000      -1.345493       -36.6127
   2   2.0000      -0.714116       -19.4321
   3   2.0000      -0.570555       -15.5256
   4   2.0000      -0.497863       -13.5475
   5   0.0000       0.217055         5.9064
   6   0.0000       0.307165         8.3584
   7   0.0000       1.031805        28.0769
   8   0.0000       1.168544        31.7977
   9   0.0000       1.168970        31.8093

------------------
MOLECULAR ORBITALS
------------------
                      0         1         2         3         4         5
                 -20.55226  -1.34549  -0.71412  -0.57055  -0.49786   0.21706
                   2.00000   2.00000   2.00000   2.00000   2.00000   0.00000
                  --------  --------  --------  --------  --------  --------
  0O   1s        -0.995780  0.213919 -0.000000 -0.069884  0.000000 -0.086636
  0O   2s        -0.022026 -0.468349  0.000000  0.170046 -0.000000  0.101696
  0O   1pz       -0.000565 -0.032284 -0.124087 -0.192345  0.578929  0.073304
  0O   1px       -0.000945 -0.054010  0.415183 -0.321787 -0.000000  0.122635
  0O   1py        0.001211  0.069224  0.266067  0.412427  0.269997 -0.157179
  0O   3s         0.008174 -0.490137  0.000000  0.283210 -0.000000  1.216761
  0O   2pz        0.000619 -0.019268 -0.074270 -0.141525  0.464331  0.165884
  0O   2px        0.001036 -0.032235  0.248502 -0.236767 -0.000000  0.277519
  0O   2py       -0.001328  0.041315  0.159251  0.303459  0.216552 -0.355690
  0O   1dz2      -0.000183  0.012656 -0.007422  0.015586  0.018503 -0.010075
  0O   1dxz      -0.000047  0.001344  0.007168 -0.010819  0.017872  0.002726
  0O   1dyz      -0.000145  0.010883  0.018375  0.018862 -0.017924 -0.010325
  0O   1dx2y2     0.000073 -0.003662  0.043685  0.004651  0.010683  0.000128
  0O   1dxy       0.000101 -0.002881 -0.015370  0.023197  0.008335 -0.005845
  1H   1s        -0.000235 -0.132938  0.232500 -0.140030  0.000000 -0.054999
  1H   2s        -0.001964  0.008803  0.106903 -0.074035  0.000000 -1.009229
  2H   1s        -0.000235 -0.132938 -0.232500 -0.140030 -0.000000 -0.054999
  2H   2s        -0.001964  0.008803 -0.106903 -0.074035  0.000000 -1.009229
                      6         7         8         9        10        11
                   0.30716   1.03181   1.16854   1.16897   1.19635   1.38544
                   0.00000   0.00000   0.00000   0.00000   0.00000   0.00000
                  --------  --------  --------  --------  --------  --------
  0O   1s        -0.000000  0.000000 -0.000000 -0.072212  0.030834 -0.000000
  0O   2s         0.000000 -0.000000  0.000000  0.352130 -0.273229  0.000000
  0O   1pz        0.079450  0.021539 -0.873012  0.057961  0.331819  0.253912
  0O   1px       -0.265834 -0.072069  0.000000  0.096968  0.555123 -0.849568
  0O   1py       -0.170357 -0.046185 -0.407150 -0.124281 -0.711487 -0.544439
  0O   3s         0.000000  0.000000 -0.000000 -0.048454  0.039037 -0.000000
  0O   2pz        0.205242  0.172816  0.938569  0.147229 -0.376164 -0.376133
  0O   2px       -0.686723 -0.578226  0.000000  0.246309 -0.629310  1.258509
  0O   2py       -0.440081 -0.370552  0.437724 -0.315688  0.806572  0.806505
  0O   1dz2       0.003379 -0.029068  0.007664  0.144184  0.009344 -0.003855
  0O   1dxz      -0.003264  0.028076  0.007403  0.057418 -0.005017  0.003723
  0O   1dyz      -0.008367  0.071969 -0.007424  0.105549  0.010665  0.009545
  0O   1dx2y2    -0.019891  0.171099  0.004425 -0.072641  0.001710  0.022692
  0O   1dxy       0.006999 -0.060200  0.003452 -0.123116  0.010759 -0.007984
  1H   1s         0.046545  0.839537 -0.000000 -0.894991 -0.011756  0.107785
  1H   2s         1.412703 -0.421037  0.000000  0.426138  0.204635 -0.933960
  2H   1s        -0.046545 -0.839537 -0.000000 -0.894991 -0.011756 -0.107785
  2H   2s        -1.412703  0.421037  0.000000  0.426138  0.204635  0.933960
                     12        13        14        15        16        17
                   1.65976   2.02115   2.03028   2.06714   2.64339   2.96522
                   0.00000   0.00000   0.00000   0.00000   0.00000   0.00000
                  --------  --------  --------  --------  --------  --------
  0O   1s         0.066294 -0.000485  0.000000 -0.000000  0.022054 -0.000000
  0O   2s        -1.620050  0.118765 -0.000000 -0.000000  0.559012 -0.000000
  0O   1pz       -0.081783  0.001495 -0.000000 -0.007428  0.010311 -0.001642
  0O   1px       -0.136821  0.002502  0.000000 -0.000000  0.017251  0.005494
  0O   1py        0.175360 -0.003206 -0.000000 -0.003464 -0.022110  0.003521
  0O   3s         2.544646 -0.238799  0.000000  0.000000 -1.406188  0.000000
  0O   2pz        0.241186 -0.047105 -0.000000 -0.029158 -0.252471  0.219586
  0O   2px        0.403496 -0.078805  0.000000  0.000000 -0.422376 -0.734717
  0O   2py       -0.517151  0.101003 -0.000000 -0.013599  0.541349 -0.470837
  0O   1dz2       0.138677 -0.257189  0.383058  0.541354  0.760356  0.188903
  0O   1dxz       0.065872  0.360174 -0.739978  0.522887  0.173470 -0.182457
  0O   1dyz       0.096858 -0.390756 -0.371066 -0.524407  0.613219 -0.467707
  0O   1dx2y2    -0.077686 -0.210157  0.221159  0.312551 -0.288097 -1.111922
  0O   1dxy      -0.141243 -0.772286 -0.345106  0.243861 -0.371954  0.391225
  1H   1s        -0.187221  0.082586 -0.000000 -0.000000  0.870199  0.976224
  1H   2s        -0.661505  0.044926  0.000000 -0.000000  0.127903 -0.024865
  2H   1s        -0.187221  0.082586 -0.000000  0.000000  0.870199 -0.976224
  2H   2s        -0.661505  0.044926 -0.000000 -0.000000  0.127903  0.024865

MULLIKEN ATOMIC CHARGES
-----------------------
   0 O :   -0.900289
   1 H :    0.450145
   2 H :    0.450145
Sum of atomic charges:    0.0000000

LOEWDIN ATOMIC CHARGES
----------------------
   0 O :   -0.649920
   1 H :    0.324960
   2 H :    0.324960

  Mayer bond orders larger than 0.100000
B(  0-O ,  1-H ) :   0.7681 B(  0-O ,  2-H ) :   0.7681

FINAL SINGLE POINT ENERGY       -76.009341330572

DIPOLE MOMENT
-------------
                                X             Y             Z
Electronic contribution:     -0.05306       0.06801      -0.03172
Nuclear contribution   :      0.55072      -0.70585       0.32919
                        -----------------------------------------
Total Dipole Moment    :      0.49766      -0.63784       0.29747
                        -----------------------------------------
Magnitude (a.u.)       :      0.86198
Magnitude (Debye)      :      2.19097

Rotational constants in cm-1:    28.677556    14.681456     9.710283
Rotational constants in MHz : 859731.496556 440138.990585 291106.965510

                             ****ORCA TERMINATED NORMALLY****
TOTAL RUN TIME: 0 days 0 hours 0 minutes 7 seconds 252 msec
