                         Program Version 5.0.1 -  RELEASE  -
|  1> # avogadro generated ORCA input file
|  2> # Basic Mode
|  3> #
|  4> ! HF OPT 6-31g(d) LargePrint
|  5>
|  6> * xyz 0 1
|  7>    N       -0.17417        1.00947        0.00000
|  8>    H        0.84583        1.00947        0.00000
|  9>    H       -0.51417        1.61554        0.74664
| 10>    H       -0.51418        0.05982        0.15156
| 11> *
| 12>
| 13>
| 14>                          ****END OF INPUT****
 Total Charge           Charge          ....    0
 Multiplicity           Mult            ....    1
 Number of Electrons    NEL             ....   10
FINAL SINGLE POINT ENERGY       -56.182330556080
FINAL SINGLE POINT ENERGY       -56.183614162956
FINAL SINGLE POINT ENERGY       -56.183696251303
FINAL SINGLE POINT ENERGY       -56.183712656631
FINAL SINGLE POINT ENERGY       -56.183713447613
                    ***********************HURRAY********************

CARTESIAN COORDINATES (ANGSTROEM)
---------------------------------
  N     -0.181658    1.017032   -0.019774
  H      0.820175    1.003389    0.015889
  H     -0.497602    1.590652    0.739347
  H     -0.497605    0.083227    0.162738

 Multiplicity           Mult            ....    1
 Number of Electrons    NEL             ....   10
 Basis Dimension        Dim             ....   20

ORBITAL ENERGIES
----------------

  NO   OCC          E(Eh)            E(eV)
   0   2.0000     -15.529515      -422.5796
   1   2.0000      -1.140162       -31.0254
   2   2.0000      -0.627656       -17.0794
   3   2.0000      -0.627655       -17.0794
   4   2.0000      -0.419783       -11.4229
   5   0.0000       0.225361         6.1324
   6   0.0000       0.325022         8.8443
   7   0.0000       0.325023         8.8443
   8   0.0000       0.896419        24.3928
   9   0.0000       0.896420        24.3928

------------------
MOLECULAR ORBITALS
------------------
                      0         1         2         3         4         5
                 -15.52951  -1.14016  -0.62766  -0.62766  -0.41978   0.22536
                   2.00000   2.00000   2.00000   2.00000   2.00000   0.00000
                  --------  --------  --------  --------  --------  --------
  0N   1s         0.996010 -0.200611 -0.000000  0.000000 -0.061365  0.113992
  0N   2s         0.023181  0.412774  0.000000 -0.000000  0.147174 -0.103272
  0N   1pz        0.001529  0.077516  0.170979 -0.144637 -0.488536 -0.126962
  0N   1px        0.000579  0.029343 -0.006537  0.445508 -0.184927 -0.048059
  0N   1py       -0.000585 -0.029651  0.440520  0.062749  0.186872  0.048565
  0N   3s        -0.010952  0.460211  0.000000 -0.000000  0.250347 -1.861801
  0N   2pz       -0.001688  0.045305  0.100758 -0.085235 -0.435492 -0.417693
  0N   2px       -0.000639  0.017149 -0.003852  0.262538 -0.164848 -0.158111
  0N   2py        0.000646 -0.017330  0.259599  0.036978  0.166582  0.159774
  0N   1dz2       0.000098 -0.006580  0.026494 -0.018959 -0.018032  0.000492
  0N   1dxz       0.000075 -0.005045 -0.003965  0.021265 -0.013824  0.000377
  0N   1dyz      -0.000076  0.005098  0.033786 -0.000430  0.013969 -0.000381
  0N   1dx2y2    -0.000000  0.000020  0.014611  0.035790  0.000055 -0.000002
  0N   1dxy      -0.000029  0.001930 -0.009428 -0.008295  0.005288 -0.000144
  1H   1s        -0.000005  0.138073 -0.004064  0.276948 -0.064570  0.028713
  1H   2s         0.002344  0.003336 -0.002392  0.162967 -0.042466  0.956313
  2H   1s        -0.000005  0.138073  0.241876 -0.134954 -0.064570  0.028713
  2H   2s         0.002344  0.003336  0.142330 -0.079412 -0.042466  0.956313
  3H   1s        -0.000005  0.138073 -0.237812 -0.141994 -0.064570  0.028713
  3H   2s         0.002344  0.003336 -0.139938 -0.083555 -0.042466  0.956313
                      6         7         8         9        10        11
                   0.32502   0.32502   0.89642   0.89642   0.97470   1.22493
                   0.00000   0.00000   0.00000   0.00000   0.00000   0.00000
                  --------  --------  --------  --------  --------  --------
  0N   1s         0.000000 -0.000000  0.000000  0.000000  0.035182 -0.090847
  0N   2s        -0.000000 -0.000000  0.000000  0.000000 -0.184271  0.511485
  0N   1pz       -0.104112 -0.116629  0.111597  0.132944  0.859859  0.263977
  0N   1px        0.311015 -0.003718 -0.345270 -0.006380  0.325486  0.099925
  0N   1py        0.035602 -0.308579 -0.049933  0.341239 -0.328908 -0.100974
  0N   3s        -0.000001  0.000000 -0.000001 -0.000000 -0.188286 -0.260616
  0N   2pz       -0.357181 -0.400124 -0.374712 -0.446391 -1.000368  0.058678
  0N   2px        1.067018 -0.012755  1.159327  0.021423 -0.378674  0.022212
  0N   2py        0.122142 -1.058661  0.167661 -1.145792  0.382655 -0.022446
  0N   1dz2      -0.007984 -0.008614  0.040921  0.071626 -0.009383  0.144023
  0N   1dxz       0.012712 -0.002837 -0.017782 -0.037176 -0.007194  0.110415
  0N   1dyz       0.004135 -0.011272  0.032472  0.091918  0.007269 -0.111577
  0N   1dx2y2     0.004061 -0.005077 -0.150136  0.038142  0.000029 -0.000442
  0N   1dxy      -0.004959 -0.006959  0.008842 -0.096167  0.002752 -0.042235
  1H   1s        -0.044087  0.000527 -0.768619 -0.014205  0.107866 -0.731214
  1H   2s        -1.800441  0.021519  0.019871  0.000367  0.113784  0.399542
  2H   1s         0.022500  0.037917  0.372008  0.672747  0.107865 -0.731213
  2H   2s         0.918857  1.548469 -0.009617 -0.017390  0.113783  0.399542
  3H   1s         0.021587 -0.038444  0.396612 -0.658542  0.107865 -0.731212
  3H   2s         0.881585 -1.569988 -0.010253  0.017023  0.113783  0.399540
                     12        13        14        15        16        17
                   1.23244   1.23244   1.47703   1.96328   1.96328   2.28591
                   0.00000   0.00000   0.00000   0.00000   0.00000   0.00000
                  --------  --------  --------  --------  --------  --------
  0N   1s         0.000000 -0.000000  0.014297 -0.000000 -0.000000 -0.040321
  0N   2s        -0.000000  0.000000 -1.823318 -0.000000 -0.000000 -0.506117
  0N   1pz       -0.317113 -0.368707 -0.118452  0.008061  0.006781  0.036516
  0N   1px        0.967523  0.006280 -0.044838 -0.000365 -0.020955  0.013822
  0N   1py        0.128432 -0.957691  0.045310  0.020713 -0.003009 -0.013968
  0N   3s        -0.000000 -0.000000  3.515840  0.000000  0.000000  1.488211
  0N   2pz        0.407945  0.474318  0.595576  0.012766  0.010739  0.386560
  0N   2px       -1.244656 -0.008079  0.225446 -0.000578 -0.033184  0.146327
  0N   2py       -0.165219  1.232007 -0.227816  0.032801 -0.004765 -0.147865
  0N   1dz2       0.040469  0.067671  0.143177 -0.307340 -0.346253 -0.667170
  0N   1dxz      -0.020186 -0.033226  0.109766 -0.291541  0.753634 -0.511486
  0N   1dyz       0.029644  0.087049 -0.110921 -0.381210  0.403024  0.516865
  0N   1dx2y2    -0.138522  0.038018 -0.000439 -0.178712 -0.272514  0.002046
  0N   1dxy       0.008366 -0.086465 -0.041987 -0.801260 -0.272363  0.195650
  1H   1s        -0.556729 -0.003615 -0.248647  0.000619  0.035535 -0.508490
  1H   2s         1.352936  0.008785 -0.741091  0.000005  0.000275 -0.193735
  2H   1s         0.275235  0.483950 -0.248646 -0.031084 -0.017231 -0.508490
  2H   2s        -0.668860 -1.176069 -0.741092 -0.000241 -0.000133 -0.193735
  3H   1s         0.281496 -0.480335 -0.248646  0.030464 -0.018304 -0.508490
  3H   2s        -0.684076  1.167285 -0.741092  0.000236 -0.000142 -0.193735
                     18        19
                   2.76985   2.76985
                   0.00000   0.00000
                  --------  --------
  0N   1s         0.000000  0.000000
  0N   2s        -0.000000 -0.000000
  0N   1pz       -0.033651  0.033836
  0N   1px        0.094735  0.006247
  0N   1py        0.005778  0.094640
  0N   3s        -0.000000 -0.000000
  0N   2pz       -0.225695  0.226942
  0N   2px        0.635396  0.041898
  0N   2py        0.038752  0.634753
  0N   1dz2      -0.427455  0.572292
  0N   1dxz       0.293975 -0.207576
  0N   1dyz      -0.239415  0.757939
  0N   1dx2y2     1.070284  0.417254
  0N   1dxy      -0.067801 -0.597817
  1H   1s        -0.951152 -0.062716
  1H   2s         0.018459  0.001217
  2H   1s         0.529890 -0.792364
  2H   2s        -0.010284  0.015377
  3H   1s         0.421262  0.855080
  3H   2s        -0.008176 -0.016594

MULLIKEN ATOMIC CHARGES
-----------------------
   0 N :   -1.020933
   1 H :    0.340311
   2 H :    0.340311
   3 H :    0.340311
Sum of atomic charges:   -0.0000000

LOEWDIN ATOMIC CHARGES
----------------------
   0 N :   -0.700779
   1 H :    0.233593
   2 H :    0.233593
   3 H :    0.233593

  Mayer bond orders larger than 0.100000
B(  0-N ,  1-H ) :   0.8570 B(  0-N ,  2-H ) :   0.8570 B(  0-N ,  3-H ) :   0.8570

FINAL SINGLE POINT ENERGY       -56.183713453847

DIPOLE MOMENT
-------------
                                X             Y             Z
Electronic contribution:     -0.03485       0.03521      -0.09205
Nuclear contribution   :      0.28532      -0.28832       0.75376
                        -----------------------------------------
Total Dipole Moment    :      0.25048      -0.25311       0.66171
                        -----------------------------------------
Magnitude (a.u.)       :      0.75144
Magnitude (Debye)      :      1.91000

Rotational constants in cm-1:    10.197022    10.197013     6.420385
Rotational constants in MHz : 305699.032801 305698.758111 192478.302388

                             ****ORCA TERMINATED NORMALLY****
TOTAL RUN TIME: 0 days 0 hours 0 minutes 8 seconds 88 msec
