                         Program Version 5.0.1 -  RELEASE  -
|  1> # avogadro generated ORCA input file
|  2> # Basic Mode
|  3> #
|  4> ! HF OPT 6-31g(d) LargePrint
|  5>
|  6> * xyz 0 1
|  7>    O       -2.01390        0.85668        0.00000
|  8>    F       -1.04390        0.85668        0.00000
|  9>    F       -2.33723        1.40238       -0.73387
| 10> *
| 11>
| 12>
| 13>                          ****END OF INPUT****
 Total Charge           Charge          ....    0
 Multiplicity           Mult            ....    1
 Number of Electrons    NEL             ....   26
FINAL SINGLE POINT ENERGY      -272.794762324302
FINAL SINGLE POINT ENERGY      -273.134848836426
FINAL SINGLE POINT ENERGY      -273.319912182524
FINAL SINGLE POINT ENERGY      -273.407639083504
FINAL SINGLE POINT ENERGY      -273.437975980714
FINAL SINGLE POINT ENERGY      -273.446329392649
FINAL SINGLE POINT ENERGY      -273.447868937427
FINAL SINGLE POINT ENERGY      -273.448103089696
FINAL SINGLE POINT ENERGY      -273.448157728671
FINAL SINGLE POINT ENERGY      -273.448169636058
FINAL SINGLE POINT ENERGY      -273.448170604063
                    ***********************HURRAY********************

CARTESIAN COORDINATES (ANGSTROEM)
---------------------------------
  O     -2.120802    0.766468    0.121319
  F     -0.774030    0.810471    0.062143
  F     -2.500197    1.538800   -0.917331

 Multiplicity           Mult            ....    1
 Number of Electrons    NEL             ....   26
 Basis Dimension        Dim             ....   42

ORBITAL ENERGIES
----------------

  NO   OCC          E(Eh)            E(eV)
   0   2.0000     -26.395377      -718.2547
   1   2.0000     -26.395344      -718.2538
   2   2.0000     -20.813468      -566.3632
   3   2.0000      -1.787916       -48.6517
   4   2.0000      -1.643904       -44.7329
   5   2.0000      -1.264190       -34.4004
   6   2.0000      -0.832420       -22.6513
   7   2.0000      -0.817464       -22.2443
   8   2.0000      -0.816016       -22.2049
   9   2.0000      -0.718690       -19.5566
  10   2.0000      -0.672048       -18.2874
  11   2.0000      -0.646381       -17.5889
  12   2.0000      -0.555123       -15.1057
  13   0.0000       0.199927         5.4403
  14   0.0000       0.236372         6.4320
  15   0.0000       1.023283        27.8450
  16   0.0000       1.053822        28.6760
  17   0.0000       1.083311        29.4784

------------------
MOLECULAR ORBITALS
------------------
                      0         1         2         3         4         5
                 -26.39538 -26.39534 -20.81347  -1.78792  -1.64390  -1.26419
                   2.00000   2.00000   2.00000   2.00000   2.00000   2.00000
                  --------  --------  --------  --------  --------  --------
  0O   1s         0.000000  0.000124  0.995932  0.117931  0.000000 -0.184787
  0O   2s         0.000000  0.001049  0.021190 -0.278247 -0.000000  0.450615
  0O   1pz        0.000234  0.000258 -0.001443  0.056282 -0.057073  0.023099
  0O   1px        0.000412 -0.000227  0.001272 -0.049594 -0.100582 -0.020354
  0O   1py       -0.000174 -0.000192  0.001073 -0.041851  0.042439 -0.017176
  0O   3s        -0.000001 -0.006620 -0.006749 -0.141511 -0.000000  0.431046
  0O   2pz        0.001350  0.002197  0.001560  0.003636 -0.008616  0.001405
  0O   2px        0.002379 -0.001937 -0.001375 -0.003204 -0.015183 -0.001238
  0O   2py       -0.001004 -0.001634 -0.001160 -0.002704  0.006406 -0.001044
  0O   1dz2      -0.000367  0.000058  0.000013  0.000350  0.012770 -0.000191
  0O   1dxz      -0.000187 -0.000133  0.000024  0.000035  0.006496  0.000632
  0O   1dyz       0.000315  0.000596  0.000474  0.008747 -0.010964 -0.000725
  0O   1dx2y2     0.000446 -0.000460 -0.000308 -0.005866 -0.015526  0.000766
  0O   1dxy       0.000139  0.000099 -0.000018 -0.000026 -0.004831 -0.000470
  1F   1s         0.703849 -0.704160 -0.000055  0.135073  0.166257  0.101707
  1F   2s         0.015542 -0.015600 -0.000090 -0.290496 -0.364530 -0.230808
  1F   1pz       -0.000004 -0.000064  0.000037  0.002894 -0.007488  0.011563
  1F   1px       -0.001021  0.000911 -0.000267  0.067062  0.028971 -0.137995
  1F   1py        0.000003  0.000048 -0.000028 -0.002152  0.005568 -0.008598
  1F   3s        -0.005604  0.006559  0.001703 -0.296287 -0.381765 -0.295338
  1F   2pz       -0.000142 -0.000018 -0.000220  0.000073 -0.003445  0.007995
  1F   2px        0.002243 -0.002848 -0.000564  0.052089  0.032613 -0.062041
  1F   2py        0.000105  0.000014  0.000164 -0.000054  0.002562 -0.005945
  1F   1dz2       0.000347 -0.000510  0.000302  0.010965  0.005168 -0.008969
  1F   1dxz       0.000052 -0.000018  0.000163  0.000520  0.001421 -0.002628
  1F   1dyz       0.000097  0.000097  0.000028 -0.000174  0.001123  0.000367
  1F   1dx2y2    -0.000660  0.000825 -0.000540 -0.018887 -0.009626  0.015313
  1F   1dxy      -0.000038  0.000013 -0.000121 -0.000387 -0.001056  0.001954
  2F   1s        -0.704137 -0.703872 -0.000055  0.135073 -0.166257  0.101707
  2F   2s        -0.015548 -0.015593 -0.000090 -0.290496  0.364530 -0.230808
  2F   1pz       -0.000771 -0.000710  0.000214 -0.049772  0.024415  0.108257
  2F   1px       -0.000345 -0.000228  0.000045 -0.025754  0.000860  0.032413
  2F   1py        0.000574  0.000528 -0.000159  0.037010 -0.018155 -0.080499
  2F   3s         0.005606  0.006557  0.001703 -0.296287  0.381765 -0.295338
  2F   2pz        0.001745  0.002148  0.000353 -0.039384  0.025822  0.049604
  2F   2px        0.000582  0.000971  0.000446 -0.017449  0.006823  0.011287
  2F   2py       -0.001298 -0.001597 -0.000263  0.029286 -0.019201 -0.036885
  2F   1dz2       0.000265  0.000380 -0.000286 -0.008103  0.004248  0.007606
  2F   1dxz       0.000260  0.000435 -0.000136 -0.009180  0.003369  0.005804
  2F   1dyz      -0.000622 -0.000667  0.000532  0.016199 -0.009207 -0.013864
  2F   1dx2y2    -0.000085 -0.000257  0.000175  0.004296 -0.001821 -0.004838
  2F   1dxy      -0.000193 -0.000323  0.000101  0.006826 -0.002505 -0.004316
                      6         7         8         9        10        11
                  -0.83242  -0.81746  -0.81602  -0.71869  -0.67205  -0.64638
                   2.00000   2.00000   2.00000   2.00000   2.00000   2.00000
                  --------  --------  --------  --------  --------  --------
  0O   1s        -0.000000 -0.033769  0.000000 -0.000000  0.000000 -0.060537
  0O   2s         0.000000  0.084850 -0.000000  0.000000 -0.000000  0.150214
  0O   1pz        0.246221  0.203775 -0.167254  0.000000 -0.059701  0.248251
  0O   1px       -0.000000 -0.179561 -0.294758 -0.000000 -0.105214 -0.218753
  0O   1py        0.331124 -0.151525  0.124369  0.000000  0.044393 -0.184598
  0O   3s         0.000000  0.143494 -0.000000  0.000000 -0.000000  0.292142
  0O   2pz        0.136053  0.108897 -0.077334  0.000000 -0.017002  0.129117
  0O   2px       -0.000000 -0.095958 -0.136288  0.000000 -0.029964 -0.113775
  0O   2py        0.182967 -0.080975  0.057505  0.000000  0.012643 -0.096011
  0O   1dz2      -0.014595 -0.004534  0.018381  0.009073  0.012855  0.002383
  0O   1dxz       0.007425  0.020123  0.009351  0.009232  0.006540 -0.007107
  0O   1dyz      -0.005066  0.014229 -0.015782  0.003149 -0.011037  0.013992
  0O   1dx2y2    -0.008426 -0.000702 -0.022348  0.005238 -0.015629 -0.012540
  0O   1dxy       0.009985 -0.014963 -0.006953  0.012415 -0.004863  0.005285
  1F   1s        -0.000000 -0.018418 -0.037060  0.000000 -0.005131 -0.005139
  1F   2s         0.000000  0.046138  0.092197 -0.000000  0.015129  0.015237
  1F   1pz        0.211733  0.279957 -0.160918  0.290199  0.356961 -0.252536
  1F   1px        0.000000  0.165004  0.307626  0.000000  0.196658  0.234850
  1F   1py        0.284743 -0.208174  0.119658  0.390267 -0.265433  0.187784
  1F   3s         0.000000  0.061464  0.132112 -0.000000  0.017825  0.016347
  1F   2pz        0.134535  0.183101 -0.101090  0.196086  0.246338 -0.185167
  1F   2px        0.000000  0.114395  0.207706  0.000000  0.149376  0.182907
  1F   2py        0.180925 -0.136153  0.075170  0.263701 -0.183175  0.137689
  1F   1dz2      -0.000252  0.007749  0.012683  0.001234  0.008778  0.011012
  1F   1dxz      -0.010889 -0.011788  0.009362 -0.007326 -0.007922  0.003545
  1F   1dyz      -0.000088  0.000036  0.001791  0.000428 -0.001324 -0.000726
  1F   1dx2y2    -0.000146 -0.013443 -0.023044  0.000712 -0.014407 -0.018637
  1F   1dxy      -0.014643  0.008765 -0.006962 -0.009852  0.005891 -0.002636
  2F   1s         0.000000 -0.018418  0.037060  0.000000  0.005131 -0.005139
  2F   2s        -0.000000  0.046138 -0.092197 -0.000000 -0.015129  0.015237
  2F   1pz        0.211733 -0.031518  0.286379 -0.290199  0.029799 -0.261858
  2F   1px       -0.000000 -0.383922 -0.086520  0.000000  0.484944  0.218421
  2F   1py        0.284743  0.023437 -0.212949 -0.390267 -0.022159  0.194716
  2F   3s        -0.000000  0.061464 -0.132112 -0.000000 -0.017825  0.016347
  2F   2pz        0.134535 -0.025513  0.190840 -0.196086  0.030901 -0.200104
  2F   2px       -0.000000 -0.253257 -0.049536  0.000000  0.339213  0.156584
  2F   2py        0.180925  0.018972 -0.141907 -0.263701 -0.022978  0.148796
  2F   1dz2       0.014185 -0.000406  0.013059 -0.010011  0.002928 -0.009497
  2F   1dxz       0.003801 -0.015936  0.003734 -0.001605  0.013878 -0.006889
  2F   1dyz       0.004924  0.007037 -0.023894 -0.003475 -0.008726  0.016884
  2F   1dx2y2     0.008190 -0.003528 -0.008253 -0.005780  0.000175  0.006299
  2F   1dxy       0.005111  0.011850 -0.002776 -0.002159 -0.010319  0.005123
                     12        13        14        15        16        17
                  -0.55512   0.19993   0.23637   1.02328   1.05382   1.08331
                   2.00000   0.00000   0.00000   0.00000   0.00000   0.00000
                  --------  --------  --------  --------  --------  --------
  0O   1s         0.000000 -0.095972  0.000000 -0.000000  0.057708 -0.000000
  0O   2s        -0.000000  0.263071 -0.000000 -0.000000 -0.143698 -0.000000
  0O   1pz        0.355836 -0.323421  0.268894  0.349561 -0.537743 -0.528094
  0O   1px       -0.000000  0.284991  0.473882  0.616045  0.473846 -0.000000
  0O   1py        0.478536  0.240494 -0.199948 -0.259931  0.399861 -0.710192
  0O   3s        -0.000000  0.623586 -0.000001  0.000001 -0.790111  0.000000
  0O   2pz        0.226529 -0.431615  0.362748 -0.823161  1.080516  0.650379
  0O   2px       -0.000000  0.380328  0.639285 -1.450689 -0.952124  0.000000
  0O   2py        0.304641  0.320945 -0.269737  0.612096 -0.803463  0.874645
  0O   1dz2      -0.003094  0.004385  0.010301  0.062821  0.016443  0.026906
  0O   1dxz       0.001574 -0.016134  0.005241  0.031960 -0.059584 -0.013688
  0O   1dyz      -0.001074  0.006828 -0.008845 -0.053940  0.031316  0.009340
  0O   1dx2y2    -0.001786 -0.011700 -0.012524 -0.076379 -0.047309  0.015534
  0O   1dxy       0.002117  0.011997 -0.003897 -0.023765  0.044306 -0.018408
  1F   1s        -0.000000  0.045780  0.046626 -0.031080 -0.021415  0.000000
  1F   2s         0.000000 -0.096569 -0.110293  0.044969 -0.025311 -0.000000
  1F   1pz       -0.199110  0.041411 -0.077926  0.098349 -0.069438 -0.115442
  1F   1px       -0.000000  0.351257  0.302959  0.170176  0.153238 -0.000000
  1F   1py       -0.267767 -0.030793  0.057945 -0.073132  0.051633 -0.155249
  1F   3s         0.000000 -0.359626 -0.346455  0.658241  0.652539 -0.000000
  1F   2pz       -0.150436  0.054322 -0.085992  0.065563 -0.064441 -0.003760
  1F   2px       -0.000000  0.469848  0.415094 -0.580302 -0.574540  0.000000
  1F   2py       -0.202310 -0.040393  0.063943 -0.048752  0.047918 -0.005056
  1F   1dz2       0.001492 -0.008889 -0.002447 -0.110467 -0.063962  0.001760
  1F   1dxz      -0.003424  0.004133 -0.010407 -0.030732  0.030113  0.012116
  1F   1dyz       0.000518  0.005304 -0.003696  0.013384 -0.025804  0.000611
  1F   1dx2y2     0.000861  0.012207  0.006460  0.183289  0.126301  0.001016
  1F   1dxy      -0.004605 -0.003074  0.007738  0.022852 -0.022392  0.016294
  2F   1s         0.000000  0.045780 -0.046626  0.031080 -0.021415 -0.000000
  2F   2s        -0.000000 -0.096569  0.110293 -0.044969 -0.025311 -0.000000
  2F   1pz       -0.199110 -0.251946  0.255184  0.095967 -0.139081 -0.115442
  2F   1px       -0.000000 -0.165739  0.009431  0.172275  0.030503 -0.000000
  2F   1py       -0.267767  0.187345 -0.189753 -0.071360  0.103420 -0.155249
  2F   3s        -0.000000 -0.359625  0.346456 -0.658242  0.652538  0.000000
  2F   2pz       -0.150436 -0.337365  0.342712 -0.460893  0.413198 -0.003760
  2F   2px       -0.000000 -0.220438  0.037332 -0.116403  0.267223  0.000000
  2F   2py       -0.202310  0.250862 -0.254838  0.342717 -0.307251 -0.005056
  2F   1dz2       0.004985  0.004944 -0.006040 -0.093594  0.030899 -0.015290
  2F   1dxz       0.000129  0.011171  0.006090 -0.073083  0.078373 -0.005232
  2F   1dyz       0.001730 -0.006573  0.010982  0.161829 -0.107254 -0.005308
  2F   1dx2y2     0.002878 -0.004611  0.003858  0.064813  0.010967 -0.008828
  2F   1dxy       0.000174 -0.008307 -0.004528  0.054344 -0.058277 -0.007037
                     18        19        20        21        22        23
                   1.22612   1.34447   1.46528   1.47135   1.47614   1.50517
                   0.00000   0.00000   0.00000   0.00000   0.00000   0.00000
                  --------  --------  --------  --------  --------  --------
  0O   1s         0.045477 -0.002218  0.000000 -0.000000  0.000000 -0.013294
  0O   2s        -1.199949 -0.404243 -0.000000  0.000000 -0.000000  0.276252
  0O   1pz       -0.021537 -0.037214 -0.000000 -0.081036 -0.113547 -0.132629
  0O   1px        0.018977  0.032792 -0.000000 -0.142812  0.000000  0.116870
  0O   1py        0.016015  0.027672 -0.000000  0.060257 -0.152700  0.098622
  0O   3s         1.899495  1.112367  0.000000  0.000000  0.000000  0.088286
  0O   2pz       -0.299767 -0.432964  0.000000 -0.083743  0.349508  0.134331
  0O   2px        0.264147  0.381516 -0.000000 -0.147584  0.000000 -0.118369
  0O   2py        0.222905  0.321948  0.000000  0.062271  0.470026 -0.099888
  0O   1dz2       0.009625 -0.027803 -0.091646  0.149649  0.129932 -0.022952
  0O   1dxz      -0.028548  0.113104 -0.093248  0.076133 -0.066102  0.053646
  0O   1dyz       0.057505  0.023539 -0.031812 -0.128492  0.045102 -0.226451
  0O   1dx2y2    -0.051245  0.034004 -0.052912 -0.181945  0.075016  0.175904
  0O   1dxy       0.021228 -0.084103 -0.125403 -0.056612 -0.088896 -0.039891
  1F   1s         0.059427  0.023650 -0.000000 -0.050088  0.000000  0.025243
  1F   2s        -0.390445 -0.063603  0.000000  0.408287 -0.000000 -0.228896
  1F   1pz        0.154796 -0.449250  0.381119 -0.106718  0.363580  0.162845
  1F   1px       -0.059635 -0.233727  0.000000  0.512716 -0.000000 -0.498939
  1F   1py       -0.115105  0.334059  0.512537  0.079355  0.488951 -0.121090
  1F   3s        -0.143284 -0.349911 -0.000000 -0.204282  0.000000  0.201510
  1F   2pz       -0.123861  0.484795 -0.425561  0.119866 -0.468734 -0.240069
  1F   2px        0.452098  0.584109 -0.000000 -0.813939  0.000000  0.649687
  1F   2py        0.092102 -0.360490 -0.572304 -0.089132 -0.630365  0.178513
  1F   1dz2       0.096149  0.008432 -0.056114  0.037412  0.072932 -0.049666
  1F   1dxz       0.052588 -0.083606  0.017113 -0.017666  0.001606 -0.058060
  1F   1dyz       0.015172  0.076127 -0.019478 -0.016741  0.025316 -0.056417
  1F   1dx2y2    -0.175657 -0.060375 -0.032397 -0.054735  0.042107  0.119943
  1F   1dxy      -0.039104  0.062169  0.023014  0.013137  0.002160  0.043173
  2F   1s         0.059427  0.023650  0.000000  0.050088 -0.000000  0.025243
  2F   2s        -0.390445 -0.063603 -0.000000 -0.408287  0.000000 -0.228896
  2F   1pz        0.096716  0.027081 -0.381119  0.423477  0.363580  0.431763
  2F   1px       -0.161992  0.605731  0.000000  0.045521 -0.000000 -0.025014
  2F   1py       -0.071918 -0.020137 -0.512537 -0.314894  0.488951 -0.321055
  2F   3s        -0.143284 -0.349912  0.000000  0.204282 -0.000000  0.201510
  2F   2pz       -0.383330 -0.280321  0.425561 -0.655756 -0.468735 -0.571555
  2F   2px       -0.005174 -0.764287 -0.000000 -0.130480  0.000000  0.065495
  2F   2py        0.285041  0.208445  0.572304  0.487615 -0.630365  0.425004
  2F   1dz2      -0.090857  0.035844  0.041130  0.020296  0.022206  0.056999
  2F   1dxz      -0.042549 -0.069660 -0.032359  0.047025 -0.050007 -0.003795
  2F   1dyz       0.175740  0.052591  0.014277 -0.032809  0.007708 -0.148002
  2F   1dx2y2     0.051708 -0.093703  0.023746 -0.015428  0.012821 -0.009742
  2F   1dxy       0.031639  0.051799 -0.043517 -0.034968 -0.067250  0.002822
                     24        25        26        27        28        29
                   1.60303   1.68157   1.72023   1.74964   1.87090   1.99755
                   0.00000   0.00000   0.00000   0.00000   0.00000   0.00000
                  --------  --------  --------  --------  --------  --------
  0O   1s        -0.000000  0.001723 -0.000000  0.000000 -0.001224 -0.000000
  0O   2s         0.000000 -0.118560 -0.000000  0.000000 -0.362175 -0.000000
  0O   1pz        0.068959 -0.072387 -0.000000 -0.072056 -0.017870  0.064533
  0O   1px        0.121529  0.063786  0.000000 -0.000000  0.015746  0.113730
  0O   1py       -0.051277  0.053827 -0.000000 -0.096903  0.013288 -0.047987
  0O   3s         0.000000  0.145432  0.000000 -0.000000  1.042327  0.000000
  0O   2pz       -0.269189  0.008173 -0.000000  0.036646 -0.207057 -0.319749
  0O   2px       -0.474403 -0.007202  0.000000  0.000000  0.182454 -0.563507
  0O   2py        0.200167 -0.006077 -0.000000  0.049282  0.153966  0.237763
  0O   1dz2      -0.022182 -0.090286 -0.284231 -0.424521  0.040199  0.015915
  0O   1dxz      -0.011285  0.391892 -0.289202  0.215973 -0.126612  0.008097
  0O   1dyz       0.019046  0.228743 -0.098663 -0.147360  0.194491 -0.013665
  0O   1dx2y2     0.026969  0.018852 -0.164101 -0.245097 -0.186561 -0.019350
  0O   1dxy       0.008391 -0.291408 -0.388925  0.290446  0.094148 -0.006021
  1F   1s         0.005715 -0.001913  0.000000  0.000000 -0.039671  0.039746
  1F   2s        -0.113366  0.070242  0.000000 -0.000000  0.647954 -0.728112
  1F   1pz       -0.484015  0.127928 -0.085988  0.070544  0.093389  0.007729
  1F   1px       -0.052061  0.110906  0.000000  0.000000 -0.212440  0.189982
  1F   1py        0.359910 -0.095126 -0.115638  0.094869 -0.069443 -0.005747
  1F   3s         0.291066 -0.115143 -0.000000  0.000000 -0.904937  1.044268
  1F   2pz        0.671588 -0.244031  0.171205 -0.144506 -0.085991  0.037382
  1F   2px       -0.030015 -0.084395 -0.000000 -0.000000  0.449315 -0.488303
  1F   2py       -0.499388  0.181459  0.230241 -0.194335  0.063942 -0.027797
  1F   1dz2      -0.015200  0.015698 -0.112418 -0.161712 -0.178927  0.047591
  1F   1dxz       0.142822 -0.338052  0.244836 -0.230608  0.011060  0.024508
  1F   1dyz      -0.038000  0.065873 -0.039023 -0.056134  0.381325  0.371840
  1F   1dx2y2     0.049174 -0.066795 -0.064904 -0.093365  0.080646 -0.305992
  1F   1dxy      -0.106202  0.251373  0.329261 -0.310127 -0.008224 -0.018224
  2F   1s        -0.005715 -0.001913  0.000000 -0.000000 -0.039671 -0.039746
  2F   2s         0.113366  0.070242  0.000000  0.000000  0.647954  0.728112
  2F   1pz        0.121950 -0.041266  0.085987  0.070544  0.191855  0.141158
  2F   1px       -0.586022 -0.187270 -0.000000  0.000000 -0.038910  0.072408
  2F   1py       -0.090681  0.030685  0.115638  0.094869 -0.142662 -0.104964
  2F   3s        -0.291066 -0.115143 -0.000000  0.000000 -0.904937 -1.044268
  2F   2pz       -0.246570 -0.017493 -0.171205 -0.144506 -0.368601 -0.381896
  2F   2px        0.779042  0.314842  0.000000 -0.000000 -0.048740 -0.118847
  2F   2py        0.183347  0.013007 -0.230241 -0.194335  0.274089  0.283975
  2F   1dz2       0.054165  0.141052  0.358309  0.248289  0.150403  0.018597
  2F   1dxz      -0.122999 -0.274279  0.005355  0.186563  0.178604  0.009164
  2F   1dyz       0.004543 -0.041759  0.124377  0.086186  0.098554 -0.428671
  2F   1dx2y2    -0.096549 -0.219202  0.206870  0.143349 -0.319760  0.225520
  2F   1dxy       0.091461  0.203952  0.007202  0.250894 -0.132809 -0.006814
                     30        31        32        33        34        35
                   2.09621   2.13430   2.14463   2.19944   2.42880   2.47270
                   0.00000   0.00000   0.00000   0.00000   0.00000   0.00000
                  --------  --------  --------  --------  --------  --------
  0O   1s        -0.000000 -0.000000 -0.000000 -0.007284  0.000000 -0.027873
  0O   2s         0.000000 -0.000000  0.000000  0.648546 -0.000000  0.878341
  0O   1pz       -0.001385 -0.000000  0.107961 -0.088474 -0.071855 -0.230319
  0O   1px        0.000000  0.000000  0.190263  0.077961 -0.126633  0.202951
  0O   1py       -0.001863 -0.000000 -0.080279  0.065788  0.053431  0.171263
  0O   3s         0.000000  0.000000 -0.000000 -1.367521  0.000001 -1.190162
  0O   2pz        0.094063 -0.000000 -0.390415  0.430432 -0.234604  0.459789
  0O   2px       -0.000000 -0.000000 -0.688045 -0.379285 -0.413451 -0.405155
  0O   2py        0.126498 -0.000000  0.290310 -0.320066  0.174449 -0.341895
  0O   1dz2       0.123879 -0.020843  0.101176  0.015982 -0.099807  0.056840
  0O   1dxz      -0.063023 -0.021208  0.051473 -0.094929 -0.050776 -0.132871
  0O   1dyz       0.043001 -0.007235 -0.086873 -0.198691  0.085696  0.560680
  0O   1dx2y2     0.071522 -0.012034 -0.123012  0.091778  0.121347 -0.435549
  0O   1dxy      -0.084755 -0.028520 -0.038275  0.070588  0.037756  0.098802
  1F   1s         0.000000  0.000000  0.014136  0.018424  0.004392 -0.022185
  1F   2s        -0.000000 -0.000000 -0.433805 -0.491978 -0.131893 -0.018055
  1F   1pz        0.040056  0.035337  0.000250  0.003315 -0.173490  0.009490
  1F   1px        0.000000 -0.000000  0.002370  0.074389  0.060738 -0.271037
  1F   1py        0.053869  0.047522 -0.000186 -0.002465  0.129006 -0.007057
  1F   3s         0.000000  0.000000  0.824568  0.935747  0.295910  0.535968
  1F   2pz       -0.056158 -0.042329  0.062505 -0.023966  0.306685 -0.033901
  1F   2px       -0.000000 -0.000000 -0.322459 -0.428461 -0.166454 -0.108769
  1F   2py       -0.075523 -0.056925 -0.046478  0.017821 -0.228048  0.025209
  1F   1dz2      -0.555078  0.565616  0.266930 -0.028810 -0.100158  0.200903
  1F   1dxz       0.109503  0.115644 -0.143986 -0.015662 -0.560686  0.013927
  1F   1dyz      -0.192679  0.196337 -0.523307  0.517637  0.097053 -0.150405
  1F   1dx2y2    -0.320474  0.326559 -0.147709 -0.261318  0.115127 -0.257546
  1F   1dxy       0.147262  0.155520  0.107067  0.011646  0.416922 -0.010356
  2F   1s        -0.000000 -0.000000 -0.014136  0.018424 -0.004392 -0.022185
  2F   2s         0.000000  0.000000  0.433805 -0.491978  0.131893 -0.018055
  2F   1pz        0.040056 -0.035337  0.001710 -0.055175  0.103782  0.208221
  2F   1px        0.000000  0.000000  0.001083 -0.028691 -0.183587  0.079195
  2F   1py        0.053869 -0.047522 -0.001271  0.041028 -0.077172 -0.154832
  2F   3s        -0.000000 -0.000000 -0.824568  0.935748 -0.295911  0.535968
  2F   2pz       -0.056158  0.042329 -0.264797  0.316171 -0.228161  0.070990
  2F   2px       -0.000000 -0.000000 -0.034048  0.170977  0.304839  0.076087
  2F   2py       -0.075523  0.056925  0.196901 -0.235103  0.169659 -0.052788
  2F   1dz2      -0.328519 -0.036996  0.165475  0.064033 -0.323589 -0.160783
  2F   1dxz       0.340024  0.422220  0.363969  0.031572  0.345108 -0.170077
  2F   1dyz      -0.114036 -0.012842  0.152032  0.437919  0.266787  0.160147
  2F   1dx2y2    -0.189671 -0.021360 -0.378018 -0.374199  0.400073  0.182198
  2F   1dxy       0.457272  0.567812 -0.270644 -0.023476 -0.256620  0.126468
                     36        37        38        39        40        41
                   2.58566   2.78645   2.78735   3.02336   3.43941   3.47550
                   0.00000   0.00000   0.00000   0.00000   0.00000   0.00000
                  --------  --------  --------  --------  --------  --------
  0O   1s        -0.000000  0.000000 -0.000000 -0.009539 -0.000000  0.123442
  0O   2s         0.000001 -0.000000 -0.000000 -0.293383 -0.000000  0.746134
  0O   1pz       -0.167548  0.000002  0.043933  0.061116 -0.223805  0.220704
  0O   1px       -0.295276 -0.000000 -0.000000 -0.053854 -0.394420 -0.194479
  0O   1py        0.124587  0.000002  0.059082 -0.045446  0.166420 -0.164114
  0O   3s        -0.000001 -0.000000  0.000000  0.769165  0.000003 -4.071843
  0O   2pz        0.277791 -0.000013 -0.347617 -0.554669 -0.845443  1.328622
  0O   2px        0.489562  0.000000  0.000000  0.488760 -1.489955 -1.170749
  0O   2py       -0.206563 -0.000018 -0.467483  0.412448  0.628665 -0.987953
  0O   1dz2      -0.402751 -0.445163  0.580994  0.179663  0.732241  0.091730
  0O   1dxz      -0.204896 -0.452982 -0.295553 -0.760675  0.372522 -0.227247
  0O   1dyz       0.345813 -0.154525  0.201675 -0.336537 -0.628722  0.825485
  0O   1dx2y2     0.489671 -0.257015  0.335437 -0.108849 -0.890272 -0.655188
  0O   1dxy       0.152359 -0.609181 -0.397466  0.565632 -0.277004  0.168979
  1F   1s         0.040295 -0.000000 -0.000000  0.004451 -0.020091 -0.020693
  1F   2s        -0.344587  0.000000 -0.000000  0.110968 -0.820204 -0.980087
  1F   1pz        0.074782 -0.058487 -0.071102 -0.040624  0.008541 -0.016200
  1F   1px        0.408403  0.000000  0.000000  0.020650  0.078784  0.108919
  1F   1py       -0.055607 -0.078654 -0.095620  0.030208 -0.006351  0.012046
  1F   3s         0.007749 -0.000000  0.000000 -0.474962  2.042411  2.659166
  1F   2pz       -0.165535  0.165617  0.223268  0.260577  0.104626 -0.019928
  1F   2px       -0.189078 -0.000000 -0.000000  0.235887 -1.356723 -1.695282
  1F   2py        0.123090  0.222726  0.300256 -0.193763 -0.077799  0.014818
  1F   1dz2      -0.021906  0.116505 -0.059022  0.069107 -0.417194 -0.443290
  1F   1dxz       0.149126 -0.367823 -0.398826 -0.541266 -0.018157 -0.056342
  1F   1dyz      -0.207120  0.040441 -0.020488 -0.099402 -0.027535  0.044841
  1F   1dx2y2     0.162470  0.067264 -0.034076 -0.059934  0.739156  0.740841
  1F   1dxy      -0.110889 -0.494657 -0.536350  0.402481  0.013502  0.041895
  2F   1s        -0.040295 -0.000000  0.000000  0.004451  0.020091 -0.020693
  2F   2s         0.344587 -0.000000  0.000000  0.110968  0.820205 -0.980086
  2F   1pz        0.284058  0.058481 -0.071107 -0.029165  0.056759 -0.087804
  2F   1px        0.223995 -0.000000  0.000000  0.040846  0.036296 -0.017272
  2F   1py       -0.211223  0.078647 -0.095626  0.021687 -0.042205  0.065291
  2F   3s        -0.007748  0.000000 -0.000000 -0.474962 -2.042415  2.659163
  2F   2pz       -0.087872 -0.165600  0.223281 -0.091606 -1.061331  1.275953
  2F   2px       -0.257512 -0.000000 -0.000000 -0.384780 -0.329314  0.588503
  2F   2py        0.065341 -0.222703  0.300273  0.068118  0.789198 -0.948789
  2F   1dz2       0.064044 -0.520797  0.502993  0.179849 -0.305195  0.345696
  2F   1dxz      -0.127689 -0.043565  0.172981 -0.484927 -0.349353  0.345048
  2F   1dyz       0.170939 -0.180780  0.174599 -0.194487  0.647798 -0.632603
  2F   1dx2y2    -0.213701 -0.300683  0.290403 -0.194575  0.139137 -0.218423
  2F   1dxy       0.094948 -0.058588  0.232628  0.360588  0.259776 -0.256575

MULLIKEN ATOMIC CHARGES
-----------------------
   0 O :    0.366175
   1 F :   -0.183087
   2 F :   -0.183087
Sum of atomic charges:    0.0000000

LOEWDIN ATOMIC CHARGES
----------------------
   0 O :    0.144681
   1 F :   -0.072341
   2 F :   -0.072341

  Mayer bond orders larger than 0.100000
B(  0-O ,  1-F ) :   0.9179 B(  0-O ,  2-F ) :   0.9179

FINAL SINGLE POINT ENERGY      -273.448170632353

DIPOLE MOMENT
-------------
                                X             Y             Z
Electronic contribution:      0.20960       0.17687      -0.23786
Nuclear contribution   :     -0.27061      -0.22836       0.30711
                        -----------------------------------------
Total Dipole Moment    :     -0.06101      -0.05149       0.06924
                        -----------------------------------------
Magnitude (a.u.)       :      0.10568
Magnitude (Debye)      :      0.26862

Rotational constants in cm-1:     2.133384     0.397065     0.334760
Rotational constants in MHz : 63957.229361 11903.706211 10035.838111

                             ****ORCA TERMINATED NORMALLY****
TOTAL RUN TIME: 0 days 0 hours 0 minutes 23 seconds 508 msec
